2048
Surface. Timestep: 1
0 19.7312 28.7248 35.6959
0 19.4452 28.5723 36.6498
0 19.3859 28.5379 37.8016
0 19.7101 28.7091 38.7892
0 19.8262 29.7681 33.7448
0 19.631 29.6956 34.6839
0 19.3434 29.6132 35.602
0 19.0563 29.5937 36.6546
0 19.0598 29.6519 37.8837
0 19.4712 29.7249 38.9025
0 19.78 30.7609 31.7424
0 19.6053 30.7227 32.7142
0 19.5043 30.698 33.692
0 19.3438 30.6871 34.6381
0 19.1132 30.7122 35.6172
0 18.9811 30.7908 36.7351
0 19.1257 30.8412 37.898
0 19.5104 30.8044 38.865
0 19.5798 31.805 32.6886
0 19.4297 31.8036 33.6741
0 19.2908 31.8233 34.657
0 19.1823 31.8745 35.6914
0 19.2018 31.9091 36.7827
0 19.3883 31.8787 37.8358
0 19.6921 31.7965 38.7754
0 19.7127 32.8062 33.7211
0 19.5807 32.85 34.7077
0 19.5096 32.8753 35.7231
0 19.5342 32.8671 36.7564
0 19.6807 32.8114 37.7587
0 20.8198 23.7995 28.7698
0 20.4653 23.5491 29.639
0 20.3185 23.5549 30.806
0 20.5828 23.7148 31.8523
0 20.7296 24.708 27.7169
0 20.3332 24.5379 28.5648
0 19.9907 24.5655 29.6531
0 20.0561 24.6928 30.8762
0 20.4141 24.7661 31.9051
0 20.8064 24.8027 32.7643
0 20.7745 25.7393 25.7646
0 20.4919 25.5554 26.6574
0 20.1638 25.5308 27.6004
0 19.9508 25.6703 28.6436
0 19.9122 25.7917 29.7759
0 20.1141 25.8366 30.9012
0 20.4521 25.8139 31.8764
0 20.7778 25.797 32.7711
0 20.6062 26.6702 24.7026
0 20.2517 26.6005 25.6453
0 20.0455 26.6876 26.6953
0 19.9999 26.8197 27.7335
0 20.0335 26.8858 28.7622
0 20.0958 26.8995 29.8177
0 20.2716 26.8511 30.86
0 20.5159 26.7985 31.8297
0 20.7465 26.7853 32.7702
0 20.6617 27.7632 23.7543
0 20.3622 27.7835 24.7024
0 20.2169 27.8577 25.7572
0 20.2461 27.9093 26.8058
0 20.3107 27.924 27.7944
0 20.3152 27.915 28.7739
0 20.3054 27.8741 29.777
0 20.3512 27.802 30.7965
0 20.4823 27.7546 31.7981
0 20.6217 27.7436 32.7685
0 20.6552 27.7273 33.7412
0 20.5838 27.6655 34.7053
0 20.4504 27.5218 35.6623
0 20.3756 27.3456 36.7071
0 20.4918 27.3667 37.8388
0 20.7348 27.6517 38.7946
0 20.7455 28.7999 23.7955
0 20.6179 28.8515 24.785
0 20.5838 28.8793 25.7995
0 20.6248 28.863 26.802
0 20.6553 28.8448 27.7851
0 20.5983 28.8482 28.7555
0 20.4458 28.8347 29.7155
0 20.3064 28.7614 30.7181
0 20.3113 28.6831 31.7484
0 20.36 28.6362 32.7313
0 20.3159 28.5779 33.6788
0 20.1844 28.4693 34.5982
0 20.6761 28.6466 39.8764
0 20.5883 29.8142 29.6902
0 20.2591 29.7675 30.5983
0 20.0553 29.6307 31.6112
0 19.9936 29.5228 32.6233
0 20.3549 29.6147 40.1431
0 20.7622 30.7875 29.7344
0 20.3169 30.8511 30.5042
0 20.2411 30.7828 40.1753
0 20.781 30.7646 40.7515
0 20.5989 31.8804 30.6051
0 20.147 32.0437 31.3874
0 20.3579 31.8736 40.0467
0 20.6435 32.9226 31.6297
0 20.3033 33.1501 32.4733
0 20.1501 33.0521 39.0385
0 20.5607 32.8636 39.8872
0 20.8149 33.7646 32.7424
0 20.5423 34.0082 33.6082
0 20.2929 34.1686 34.5881
0 20.1604 34.245 35.6736
0 20.1553 34.2212 36.7923
0 20.2876 34.0998 37.8664
0 20.5291 33.9298 38.849
0 20.8105 34.7618 34.7334
0 20.7091 34.8637 35.7199
0 20.6981 34.8722 36.7359
0 20.7713 34.7953 37.7349
0 21.6112 22.5592 29.6222
0 21.3941 22.3501 30.7062
0 21.4463 22.4629 31.8422
0 21.6272 22.6641 32.8283
0 21.5661 23.4689 28.4886
0 21.1817 23.5274 33.0227
0 21.5629 23.7154 33.8809
0 21.7703 24.6886 26.722
0 21.4895 24.317 27.4268
0 21.3644 24.6996 33.9689
0 21.7509 24.7819 34.7793
0 21.7819 25.7039 24.7545
0 21.5704 25.3238 25.5529
0 21.1805 25.6569 33.9807
0 21.4875 25.6659 34.8608
0 21.7574 25.7531 35.7617
0 21.774 26.7274 22.7868
0 21.5347 26.4258 23.6042
0 20.9353 26.5542 33.9135
0 21.1218 26.4525 34.8466
0 21.2897 26.3692 35.8271
0 21.5066 26.4136 36.8372
0 21.7205 26.6194 37.7919
0 21.7408 27.7512 20.8046
0 21.4962 27.6186 21.6936
0 21.1907 27.4615 22.5433
0 21.5292 27.2814 39.0264
0 21.7926 27.7251 39.7602
0 21.6414 28.8014 20.7518
0 21.2905 28.7953 21.6184
0 20.9596 28.8216 22.5471
0 21.8205 28.7728 40.7106
0 21.5791 29.8716 21.7313
0 21.3301 29.9701 22.7042
0 21.2146 30.0547 23.7463
0 21.2011 30.1099 24.7912
0 21.2155 30.116 25.81
0 21.2083 30.1011 26.7969
0 21.1576 30.0742 27.7306
0 20.9853 30.0631 28.5939
0 21.6145 29.6116 41.109
0 21.7861 30.7887 22.8113
0 21.7227 30.829 23.8076
0 21.7334 30.8261 24.806
0 21.7368 30.8237 25.7975
0 21.7049 30.8401 26.783
0 21.5996 30.8858 27.7416
0 21.3802 30.967 28.6223
0 21.4581 30.7213 41.315
0 21.7672 31.7934 28.7539
0 21.4417 31.9913 29.5458
0 21.4687 31.8627 41.2313
0 21.5577 33.0225 30.5729
0 21.604 32.8866 41.0133
0 21.753 33.8416 31.7019
0 21.4994 34.1747 32.4843
0 21.424 34.0837 40.1027
0 21.6655 34.9649 33.6307
0 21.4842 35.2488 34.5677
0 21.3654 35.4158 35.6305
0 21.3236 35.4287 36.7395
0 21.3523 35.3367 37.8521
0 21.5142 35.1049 38.8971
0 21.7832 34.7868 39.7454
0 22.7123 21.6839 29.7054
0 22.5996 21.5035 30.7278
0 22.6216 21.5394 31.784
0 22.691 21.6587 32.7864
0 22.8045 21.8093 33.7517
0 22.6522 22.6257 28.5828
0 22.2961 22.4345 33.9853
0 22.5961 22.6824 34.8757
0 22.6967 23.6218 27.6058
0 22.2962 23.5957 35.0866
0 22.7591 23.7862 35.7844
0 22.6586 24.4333 26.5496
0 22.5215 24.6539 35.9526
0 22.6939 25.4484 24.6347
0 22.5233 25.0348 25.4135
0 22.5635 25.5416 36.913
0 22.7328 26.6703 20.8055
0 22.6655 26.5372 21.7573
0 22.5723 26.3162 22.6473
0 22.4211 26.0012 23.4677
0 22.481 26.2414 38.0136
0 22.7366 26.6241 38.8226
0 22.7962 27.7817 18.8089
0 22.2946 27.548 19.435
0 22.7024 27.5029 39.9819
0 22.4666 28.9338 19.4406
0 22.7621 28.6331 40.929
0 22.808 29.7823 19.824
0 22.3332 30.0357 20.4157
0 22.6447 29.5019 41.4065
0 22.7147 30.8314 20.7456
0 22.2838 31.064 21.5487
0 22.8032 30.754 41.7738
0 22.684 31.8291 21.7709
0 22.4756 31.9487 22.7557
0 22.4227 31.9857 23.7989
0 22.4449 31.9708 24.8071
0 22.4346 31.9741 25.7898
0 22.3925 31.9942 26.7517
0 22.2525 32.0637 27.6637
0 22.7853 31.7688 41.8158
0 22.8114 32.7568 26.7915
0 22.686 32.8249 27.7582
0 22.5063 32.9492 28.6839
0 22.2932 33.1598 29.5586
0 22.495 33.0148 41.4226
0 22.7711 33.7823 29.7573
0 22.5712 33.98 30.6566
0 22.6431 33.9438 41.0459
0 22.8022 34.7541 31.7518
0 22.5683 35.0268 32.5905
0 22.5389 35.1197 40.051
0 22.7505 35.8073 33.7176
0 22.6544 35.9943 34.685
0 22.6326 36.0889 35.6976
0 22.6222 36.1205 36.7214
0 22.6283 36.0876 37.7583
0 22.6938 35.9471 38.7837
0 23.806 20.8199 30.7663
0 23.5981 21.6273 28.6122
0 23.3722 21.2478 29.521
0 23.3272 21.049 31.7735
0 23.3513 21.1555 32.8399
0 23.4056 21.3178 33.881
0 23.5309 21.5358 34.8845
0 23.8013 21.8161 35.7417
0 23.6772 22.7148 27.6503
0 23.4889 22.6304 36.0275
0 23.7425 23.7334 26.7169
0 23.7601 23.7838 36.7849
0 23.6754 24.5558 25.6463
0 23.5162 24.5914 37.0285
0 23.689 25.5265 23.7012
0 23.5469 25.1778 24.519
0 23.603 25.5229 37.9581
0 23.5648 26.3954 19.635
0 23.4773 26.2237 20.686
0 23.4574 26.1248 21.6726
0 23.4087 25.9464 22.5605
0 23.6069 26.358 39.0584
0 23.7192 27.7763 18.4891
0 23.6736 27.3671 40.1915
0 23.8061 28.7949 18.8107
0 23.7666 28.5789 41.0526
0 23.6699 29.9408 19.4656
0 23.7063 29.4679 41.5293
0 23.3155 31.0452 20.2008
0 23.7874 30.7296 41.8818
0 23.4597 31.8834 20.4962
0 23.7411 31.7571 42.0012
0 23.5589 32.8018 20.6692
0 23.1688 32.9733 21.6036
0 23.0149 33.1163 22.6963
0 22.9772 33.1578 23.7732
0 22.9879 33.1414 24.7961
0 22.9751 33.1301 25.7727
0 23.7387 32.7989 41.9033
0 23.6542 33.7751 20.7677
0 23.4292 33.8714 21.7612
0 23.398 33.9242 22.7972
0 23.4049 33.9402 23.803
0 23.4036 33.9323 24.7961
0 23.3782 33.9307 25.7793
0 23.3182 33.9475 26.7567
0 23.2288 33.9967 27.732
0 23.1362 34.0816 28.7008
0 23.5276 34.0711 41.3487
0 23.73 34.7718 21.8208
0 23.7579 34.7657 22.8203
0 23.8004 34.7461 23.8119
0 23.7935 34.7494 24.8046
0 23.7485 34.769 25.7943
0 23.6757 34.7962 26.7809
0 23.5973 34.8246 27.7681
0 23.5184 34.8569 28.7542
0 23.4247 34.9102 29.7333
0 23.3167 35.0052 30.6881
0 23.6927 34.8963 40.9251
0 23.728 35.7561 29.7644
0 23.6228 35.7845 30.7422
0 23.4557 35.8548 31.6963
0 23.2816 36.0134 32.6404
0 23.387 36.5282 37.8093
0 23.4708 36.3444 38.9354
0 23.6655 35.9751 39.8737
0 23.7461 36.7311 30.7566
0 23.5974 36.7425 31.7373
0 23.495 36.7919 32.7478
0 23.5512 36.8674 33.7716
0 23.6974 36.8357 34.7562
0 23.7753 36.7757 35.7373
0 23.8005 36.7449 36.728
0 23.7182 37.7169 30.7457
0 23.5396 37.7039 31.7413
0 23.5424 37.7289 32.8014
0 23.6459 38.7122 30.7124
0 23.4029 38.7046 31.7412
0 23.5247 38.7373 32.8568
0 23.672 39.736 30.7047
0 23.3885 39.8137 31.763
0 23.6846 39.7608 32.8281
0 23.804 40.7074 31.7607
0 24.7919 20.8207 27.7785
0 24.5947 20.5834 28.7015
0 24.5835 20.4452 29.731
0 24.6209 20.4295 30.7603
0 24.6449 20.4707 31.77
0 24.6574 20.5191 32.7645
0 24.6502 20.5463 33.7665
0 24.6672 20.6255 34.7788
0 24.7767 20.7991 35.7476
0 24.4231 21.5936 27.5293
0 24.738 21.7855 36.7928
0 24.5584 22.6971 26.6136
0 24.5421 22.6882 37.0271
0 24.6401 23.6963 25.6878
0 24.3687 23.5774 37.24
0 24.8018 24.8015 23.8099
0 24.5621 24.5374 24.6487
0 24.6151 24.6392 37.9652
0 24.7714 25.7401 19.8172
0 24.6961 25.6271 20.804
0 24.6368 25.5504 21.7788
0 24.5378 25.4078 22.7031
0 24.7026 25.6429 38.8774
0 24.7281 26.6621 18.5985
0 24.7548 26.6669 39.8558
0 24.7552 27.8188 18.4031
0 24.6591 27.2935 40.391
0 24.8015 28.8156 18.7539
0 24.7593 28.5626 41.1262
0 24.6921 29.9591 19.2471
0 24.7032 29.4439 41.586
0 24.7236 30.8235 19.5422
0 24.7501 30.6802 41.994
0 24.7156 31.7618 19.6354
0 24.6371 31.696 42.2258
0 24.6376 32.7229 19.5892
0 24.5649 32.8215 42.2207
0 24.49 33.7109 19.5082
0 24.644 33.8542 41.9659
0 24.3972 34.7975 19.5304
0 23.9146 35.0458 20.5085
0 24.4932 35.0904 41.2208
0 24.5849 35.8381 19.7085
0 24.307 36.0242 20.7296
0 24.3417 36.0564 21.8418
0 24.4715 35.9853 22.8433
0 24.5167 35.9486 23.8087
0 24.4861 35.9606 24.7706
0 24.3763 36.0076 25.7243
0 24.2038 36.0578 26.6857
0 24.0172 36.0693 27.6772
0 23.8515 36.0471 28.6925
0 24.7403 35.8205 40.7946
0 24.8028 36.7296 20.831
0 24.6571 36.8205 26.7475
0 24.4071 36.916 27.6749
0 24.1398 36.9442 28.633
0 23.8852 36.9055 29.6481
0 24.4528 37.2065 36.7605
0 24.5246 37.1599 37.7778
0 24.6202 37.026 38.8094
0 24.8019 36.7326 39.7109
0 24.7819 37.7331 27.7749
0 24.4362 37.8509 28.6298
0 24.0466 37.878 29.5504
0 24.0911 37.9757 34.0866
0 24.5178 37.9027 34.8799
0 24.7963 37.7291 35.7372
0 24.7122 38.7513 28.72
0 24.2436 38.8684 29.4985
0 24.4048 38.9094 34.0694
0 24.4825 39.8357 29.5518
0 24.7476 39.7699 33.8261
0 24.7608 40.729 29.7379
0 24.3544 41.0347 30.5982
0 24.3193 41.1951 31.9133
0 24.7283 40.823 32.8575
0 25.7777 19.7984 28.7801
0 25.5778 20.6666 26.657
0 25.2969 20.3447 27.5553
0 25.362 20.0062 29.7417
0 25.4654 20.0415 30.7687
0 25.5108 20.0954 31.7653
0 25.5073 20.1094 32.756
0 25.4736 20.0901 33.7662
0 25.393 20.1137 34.8299
0 25.3606 20.3092 35.9187
0 25.5296 20.633 36.8958
0 25.5878 21.7176 25.6743
0 25.1696 21.4997 26.4213
0 25.7351 21.8029 37.7853
0 25.6423 22.7457 24.7248
0 25.262 22.5975 25.517
0 25.6123 22.7504 37.9379
0 25.6335 23.7161 23.7373
0 25.3059 23.5642 24.5782
0 25.4765 23.6479 38.1303
0 25.6791 24.6814 21.784
0 25.4828 24.5423 22.7016
0 25.7245 24.7396 38.8231
0 25.5448 25.3639 19.5726
0 25.3278 25.1593 20.6143
0 25.5176 25.4323 39.2124
0 25.7012 26.6571 18.3834
0 25.6901 26.5529 40.0628
0 25.7611 27.858 18.3927
0 25.7869 27.7393 40.7855
0 25.7967 28.8133 18.7527
0 25.7327 28.5242 41.2193
0 25.7049 29.939 19.1448
0 25.7831 29.732 41.7809
0 25.7057 30.8056 19.3485
0 25.663 30.5807 42.162
0 25.6549 31.7023 19.3289
0 25.7565 31.7313 42.7533
0 25.513 32.5963 19.1399
0 25.588 32.7331 42.9185
0 25.7528 33.7133 18.7301
0 25.6451 33.7922 42.8199
0 25.6539 34.7308 18.5306
0 25.4901 34.9471 42.0214
0 25.715 35.8023 18.6611
0 25.4645 36.0969 41.0716
0 25.7942 35.7376 41.6991
0 25.6494 36.9992 19.6674
0 25.453 37.2761 20.7174
0 25.4234 37.2149 21.8347
0 25.4683 37.095 22.8317
0 25.4738 37.052 23.7903
0 25.4138 37.0864 24.7294
0 25.2655 37.1827 25.6336
0 25.543 37.0797 39.9216
0 25.7576 37.7564 25.7828
0 25.5021 37.9466 26.646
0 25.5241 38.0514 36.8106
0 25.6483 37.9261 37.7698
0 25.7763 37.7541 38.7251
0 25.5441 38.8694 27.614
0 25.5031 39.0387 35.009
0 25.7846 38.7316 35.7437
0 25.4135 39.9125 28.4851
0 25.618 40.0374 34.0752
0 25.695 40.7612 28.6923
0 25.645 41.0505 33.0698
0 25.6121 41.8424 29.6625
0 25.3696 42.1518 30.7307
0 25.6129 41.9999 31.9384
0 26.6345 19.624 26.7067
0 26.5448 19.4099 27.7292
0 26.5879 19.407 28.8012
0 26.6588 19.5266 29.8074
0 26.7132 19.6359 30.7858
0 26.7463 19.7131 31.7665
0 26.7577 19.7367 32.752
0 26.7387 19.683 33.7335
0 26.6779 19.5645 34.7042
0 26.5385 19.4343 35.6977
0 26.4006 19.4581 36.7963
0 26.5686 19.7141 37.8332
0 26.7615 20.8063 24.7837
0 26.421 20.5215 25.5623
0 26.3301 20.6374 38.0785
0 26.7348 21.7828 23.7698
0 26.3507 21.5462 24.5353
0 26.7506 21.8174 38.7607
0 26.7431 22.7785 22.7801
0 26.3459 22.5524 23.5368
0 26.6874 22.7931 38.8435
0 26.6837 23.6914 21.7436
0 26.3333 23.4652 22.5369
0 26.5859 23.7253 38.9897
0 26.7582 24.7159 19.7819
0 26.5369 24.387 20.6094
0 26.446 24.565 39.2378
0 26.7571 25.6838 18.6702
0 26.7061 25.6983 39.9104
0 26.7286 26.6856 18.2554
0 26.6222 26.4822 40.3108
0 26.7564 27.8822 18.3577
0 26.7679 27.6895 40.893
0 26.7843 28.8191 18.7298
0 26.7229 28.464 41.3315
0 26.6846 29.9276 19.0365
0 26.7336 29.6236 41.9469
0 26.6891 30.7868 19.1995
0 26.7682 30.7312 42.731
0 26.6556 31.652 19.1215
0 26.766 31.7371 43.7047
0 26.788 32.7453 18.8213
0 26.4078 32.6241 43.9451
0 26.7649 32.7418 44.6936
0 26.7251 33.6423 18.4677
0 26.3006 33.7916 43.9573
0 26.6594 33.7583 44.7526
0 26.7096 34.7544 18.2031
0 26.2482 34.9775 43.0124
0 26.5512 34.8369 43.7983
0 26.7678 35.9119 18.4469
0 26.6234 35.8363 42.7798
0 26.7464 37.1896 19.4951
0 26.4131 37.083 40.9653
0 26.7033 36.7971 41.7512
0 26.7777 37.7794 20.8143
0 26.6928 37.9295 21.7906
0 26.6052 37.9848 22.7814
0 26.5173 38.0247 23.7541
0 26.3918 38.0935 24.6862
0 26.4321 38.1814 38.8717
0 26.6044 37.9389 39.8086
0 26.6417 38.8243 25.7307
0 26.3479 39.0204 26.5377
0 26.4901 39.1553 35.9205
0 26.6396 38.9212 36.7915
0 26.7629 38.7523 37.7315
0 26.7061 39.7562 26.7379
0 26.3032 39.9843 27.4385
0 26.5821 40.275 34.2063
0 26.7412 39.8349 34.817
0 26.5836 40.8061 27.6349
0 26.633 41.1894 33.2275
0 26.4336 41.9099 28.5459
0 26.4958 42.2646 32.2278
0 26.7659 42.7053 28.7646
0 26.4768 42.957 29.6741
0 26.4363 43.0883 30.8696
0 26.7608 42.74 31.8077
0 27.7436 18.7636 35.6978
0 27.4883 18.4584 36.6103
0 27.2938 18.4411 37.8172
0 27.6125 18.7511 38.8457
0 27.7496 19.7958 24.7767
0 27.5142 19.4703 25.6258
0 27.3674 19.1552 26.6182
0 27.362 18.9942 27.7321
0 27.4303 19.0187 28.8266
0 27.5013 19.1511 29.8497
0 27.5705 19.2827 30.8272
0 27.623 19.3776 31.7957
0 27.6531 19.4214 32.7614
0 27.6483 19.3785 33.7106
0 27.5774 19.2134 34.6216
0 27.4223 19.6945 39.0756
0 27.6871 20.7303 23.7118
0 27.3515 20.7144 39.2278
0 27.7297 21.7623 22.7423
0 27.3309 21.7311 39.3088
0 27.7836 22.8145 21.8208
0 27.3009 22.7059 39.3687
0 27.767 23.7509 20.7843
0 27.7387 23.7952 39.7853
0 27.7542 24.5577 19.6413
0 27.6497 24.7274 39.974
0 27.7886 25.6579 18.5902
0 27.5801 25.614 40.2546
0 27.7856 26.701 18.2473
0 27.5846 26.4714 40.6067
0 27.7648 27.8632 18.3272
0 27.7613 27.6576 40.9982
0 27.7659 28.8415 18.6366
0 27.7615 28.4043 41.43
0 27.6626 29.9356 18.9021
0 27.7231 29.4774 42.0969
0 27.6794 30.7821 19.038
0 27.6425 30.4524 42.9823
0 27.6828 31.6406 18.9534
0 27.4545 31.3419 44.0469
0 27.7283 31.6753 44.7472
0 27.7741 32.7083 18.7011
0 27.7716 32.7401 45.6963
0 27.784 33.6531 18.3647
0 27.6529 33.7359 45.8803
0 27.855 34.8099 18.2395
0 27.2119 34.9447 45.1002
0 27.7183 34.7666 45.7495
0 27.8448 35.8695 18.5787
0 27.2529 36.034 43.9545
0 27.5741 35.861 44.8049
0 27.8493 37.0515 19.5423
0 27.4065 36.9814 42.8706
0 27.6823 36.7987 43.7323
0 27.7676 37.8945 20.7335
0 27.5756 38.2556 21.5981
0 27.3061 38.1156 40.9192
0 27.5566 37.8898 41.8055
0 27.7464 38.7701 22.7956
0 27.54 38.9613 23.6981
0 27.2952 39.1028 24.5872
0 27.3449 39.2163 37.8316
0 27.4535 39.0484 38.8071
0 27.5824 38.8944 39.769
0 27.7489 38.7436 40.7146
0 27.7122 39.7576 24.7681
0 27.4015 39.9285 25.6021
0 27.6252 40.1226 34.9232
0 27.7078 39.8554 35.7731
0 27.7826 39.7123 36.728
0 27.7242 40.7311 25.763
0 27.3516 40.912 26.5308
0 27.7589 40.7986 33.8254
0 27.629 41.7708 26.6927
0 27.2317 42.0088 27.4375
0 27.7512 41.8018 32.8843
0 27.5616 42.8416 27.6422
0 27.6326 42.9521 32.079
0 27.657 43.8133 28.7135
0 27.4884 44.0329 29.7274
0 27.5631 43.9936 30.8958
0 28.7099 17.6793 36.6267
0 28.468 17.2394 37.6582
0 28.5796 17.5385 38.9662
0 28.7194 18.7106 25.7601
0 28.6606 18.5333 26.757
0 28.6624 18.5141 27.7966
0 28.6931 18.6043 28.8057
0 28.7347 18.7239 29.7887
0 28.7792 18.844 30.7663
0 28.7717 18.8195 34.7312
0 28.6366 18.423 35.5263
0 28.3094 18.3476 39.429
0 28.7477 19.7917 23.7694
0 28.4896 19.3652 24.5147
0 28.5071 19.0266 31.8527
0 28.5627 19.0986 32.7955
0 28.5794 19.0669 33.7032
0 28.7413 19.8177 39.8374
0 28.4606 20.3887 23.3356
0 28.7068 20.8035 39.9368
0 28.6004 21.5371 22.3989
0 28.6614 21.7846 40.0142
0 28.7201 22.6482 21.6031
0 28.5965 22.7549 40.1139
0 28.7669 23.663 20.6871
0 28.5284 23.7216 40.2386
0 28.7996 24.6023 19.6442
0 28.4962 24.683 40.398
0 28.8049 25.7196 18.699
0 28.5203 25.6326 40.62
0 28.8275 26.688 18.3419
0 28.7669 26.77 40.7973
0 28.7877 27.8271 18.3131
0 28.7753 27.6597 41.067
0 28.7626 28.8475 18.5468
0 28.8615 28.4063 41.4534
0 28.774 29.7826 18.7969
0 28.8093 29.3892 42.1311
0 28.7126 30.8095 18.8829
0 28.7061 30.1994 43.1069
0 28.7539 30.6336 43.7637
0 28.7641 31.667 18.8234
0 28.6823 31.4268 44.973
0 28.7859 32.7111 18.659
0 28.7293 32.6246 45.9366
0 28.8443 33.7091 18.4173
0 28.6154 33.6469 46.2535
0 28.884 34.8261 18.473
0 28.5339 34.8029 46.236
0 28.7834 35.7402 18.8331
0 28.5786 35.8594 45.9705
0 28.8234 36.8554 19.6896
0 28.455 36.9994 44.9285
0 28.778 37.887 20.6827
0 28.2546 38.1199 42.9695
0 28.5621 37.9067 43.8186
0 28.76 38.769 21.7848
0 28.5006 39.1557 22.5235
0 28.3984 39.0094 41.8779
0 28.6865 38.7915 42.7418
0 28.5633 39.9359 23.6248
0 28.4418 40.4798 34.9573
0 28.4193 40.2802 35.7847
0 28.3658 40.1893 36.7241
0 28.3126 40.1405 37.7287
0 28.3161 40.0652 38.7644
0 28.4075 39.9745 39.7883
0 28.5853 39.8552 40.7694
0 28.551 40.8742 24.6111
0 28.6568 41.0141 33.9625
0 28.4716 41.9121 25.5525
0 28.6653 41.9319 33.0673
0 28.4694 42.9755 26.549
0 28.5041 43.1058 32.3437
0 28.606 43.9133 27.6441
0 28.3427 44.2634 28.5406
0 28.6851 43.8119 31.9175
0 28.6949 44.8189 29.7641
0 28.7507 44.7242 30.7836
0 29.769 17.5077 36.5508
0 29.7911 16.971 37.6598
0 29.7963 17.3428 39.0964
0 29.7275 18.6804 24.7347
0 29.663 18.3944 25.6872
0 29.6251 18.2326 26.7299
0 29.6036 18.2147 27.7921
0 29.607 18.2862 28.8222
0 29.6352 18.4007 29.8266
0 29.6814 18.5352 30.8136
0 29.7295 18.6852 31.7833
0 29.7624 18.8015 32.7561
0 29.7623 18.795 33.742
0 29.7324 18.6017 34.6657
0 29.7015 18.1987 35.4399
0 29.7729 18.8218 39.7918
0 29.6498 19.5102 23.5077
0 29.7651 19.7878 39.9723
0 29.7172 20.6928 22.5952
0 29.7429 20.7557 40.1129
0 29.6395 21.4242 22.1368
0 29.6856 21.7072 40.2814
0 29.7397 22.5991 21.4862
0 29.6051 22.6638 40.4628
0 29.7806 23.6935 20.6936
0 29.5168 23.6503 40.6578
0 29.7946 24.7128 19.7369
0 29.7588 24.7994 40.7637
0 29.8994 25.342 19.1764
0 29.7532 25.7903 40.8263
0 29.8278 26.6979 18.5028
0 29.7636 26.7698 40.9084
0 29.8185 27.7848 18.3707
0 29.8102 27.7064 41.0758
0 29.7851 28.8351 18.514
0 29.9585 28.523 41.3411
0 29.7734 29.7946 18.7281
0 29.8898 29.4699 42.0045
0 29.8421 30.8645 18.8184
0 29.8796 30.1788 43.029
0 29.7858 30.5879 43.7801
0 29.9211 31.7435 18.8355
0 29.7834 31.3722 45.0198
0 29.7931 32.7425 18.7514
0 29.7788 32.6139 45.9569
0 29.8379 33.7511 18.6538
0 29.7478 33.5899 46.3097
0 29.7943 34.756 18.7942
0 29.6513 34.7027 46.4834
0 29.9271 35.9688 19.4198
0 29.5583 35.9052 46.4115
0 29.8618 37.2058 20.1579
0 29.6361 36.919 45.9909
0 29.7776 37.8364 20.6874
0 29.5704 37.9934 44.9244
0 29.7229 38.9147 21.62
0 29.619 38.9132 43.8426
0 29.6975 39.8751 22.6617
0 29.4089 40.1032 41.9618
0 29.7067 39.7968 42.7519
0 29.675 40.8483 23.6463
0 29.4353 41.1117 34.7995
0 29.3988 41.0537 35.6733
0 29.253 41.0939 36.6142
0 29.0977 41.1518 37.6408
0 29.0584 41.1815 38.765
0 29.2325 41.1279 39.8869
0 29.5479 40.9356 40.8417
0 29.5977 41.9119 24.5375
0 29.6658 41.7949 33.8319
0 29.6736 41.7467 36.7058
0 29.5198 41.8265 37.6946
0 29.5162 41.8539 38.7441
0 29.7001 41.7547 39.7392
0 29.5581 42.9838 25.5226
0 29.5862 42.8332 33.0005
0 29.633 43.9072 26.642
0 29.3835 44.0477 32.2246
0 29.7692 44.6815 27.7825
0 29.5646 44.9958 28.6585
0 29.3975 45.2151 29.7332
0 29.4351 45.1068 30.9211
0 29.6931 44.7535 31.8238
0 30.8157 17.6601 36.6484
0 30.946 17.3123 37.6998
0 30.873 17.5894 38.8928
0 30.7642 18.5436 24.6799
0 30.7515 18.2453 25.6377
0 30.7003 18.045 26.6746
0 30.6309 17.9741 27.7568
0 30.6083 18.0177 28.822
0 30.6305 18.1275 29.8565
0 30.6726 18.2958 30.8606
0 30.7135 18.4815 31.8225
0 30.7388 18.6149 32.777
0 30.7525 18.6482 33.74
0 30.7657 18.5089 34.667
0 30.8256 18.1939 35.5017
0 31.0249 18.2183 39.4921
0 30.7624 19.3573 23.3692
0 30.791 19.7996 39.8822
0 30.7562 20.6173 22.462
0 30.8032 20.7487 40.0592
0 30.7709 21.3737 22.0062
0 30.8039 21.6657 40.2967
0 30.7724 22.6013 21.4346
0 30.7683 22.5882 40.5801
0 30.7769 23.7487 20.744
0 30.762 23.7952 40.7901
0 30.8807 24.3561 20.2526
0 30.7536 24.7903 40.9155
0 30.8851 25.4722 19.364
0 30.762 25.802 40.9329
0 30.8024 26.738 18.6749
0 30.7826 26.796 40.8983
0 30.8206 27.7747 18.5168
0 30.8188 27.7699 40.9237
0 30.7979 28.8127 18.6118
0 30.9236 28.6789 41.0572
0 30.7719 29.7803 18.805
0 30.8092 29.7033 41.7604
0 30.96 30.9028 19.0087
0 30.8988 30.405 42.8547
0 30.7734 30.7366 43.6957
0 30.9986 31.8093 19.1291
0 30.8255 31.4572 44.9269
0 31.0461 32.7732 19.1683
0 30.7887 32.6547 45.8661
0 31.0593 33.82 19.2057
0 30.7994 33.5862 46.2137
0 30.9597 34.8732 19.3685
0 30.7611 34.6441 46.4606
0 30.8161 35.8043 19.6735
0 30.7003 35.8242 46.5026
0 30.8393 37.0416 20.2339
0 30.6673 36.9526 46.2093
0 30.7701 37.8024 20.7019
0 30.7538 37.7609 45.7207
0 30.7374 38.9665 21.5173
0 30.4919 39.2216 44.1364
0 30.7453 38.7678 44.7249
0 30.6935 40.0203 22.4785
0 30.5443 40.122 43.0004
0 30.6334 41.0417 23.3977
0 30.6279 40.9572 41.885
0 30.5296 42.143 24.2421
0 30.0991 42.0206 34.7081
0 30.0267 42.0213 35.5365
0 30.6739 41.832 40.8174
0 30.7241 42.7752 24.6993
0 30.2774 42.8463 33.9155
0 30.4088 42.787 34.7296
0 30.3044 42.8138 35.6372
0 30.0905 42.9185 36.6028
0 29.9823 43.0573 37.7555
0 30.2568 43.0423 38.9398
0 30.6815 42.7771 39.7891
0 30.7027 43.7994 25.6969
0 30.4274 44.2078 26.4052
0 30.1808 43.8911 33.1234
0 30.5017 43.7458 33.8213
0 30.6163 43.7129 34.7379
0 30.502 43.7422 35.6948
0 30.3539 43.8132 36.6939
0 30.3684 43.8742 37.7928
0 30.6761 43.7481 38.7713
0 30.5012 45.0319 27.5638
0 30.4463 44.8108 32.899
0 30.7308 44.6861 33.7547
0 30.7309 44.6869 35.7307
0 30.6563 44.7225 36.7297
0 30.6568 45.7952 28.7209
0 30.4575 45.9905 29.7109
0 30.4173 45.9828 30.8144
0 30.5732 45.8113 31.8221
0 31.8102 17.7514 37.7184
0 31.8096 18.6622 24.7244
0 31.8585 18.3446 25.6278
0 31.8427 18.0448 26.5935
0 31.7702 17.8448 27.6793
0 31.719 17.8443 28.8145
0 31.7258 17.9839 29.8855
0 31.7432 18.1858 30.8903
0 31.7577 18.3991 31.8481
0 31.7683 18.5681 32.7939
0 31.7744 18.6586 33.7521
0 31.7963 18.5978 34.7068
0 31.8733 18.3851 35.6158
0 32.0617 18.0628 36.5749
0 32.0143 18.4766 39.1247
0 31.91 19.4691 23.4807
0 32.1199 19.3778 39.562
0 31.8355 20.6404 22.5244
0 31.8025 20.788 39.8841
0 31.9691 21.3936 22.0838
0 31.8535 21.7026 40.1161
0 31.826 22.6335 21.4693
0 31.9046 22.5971 40.4195
0 31.9489 23.3797 21.0733
0 31.7647 23.804 40.7359
0 31.8827 24.4992 20.3997
0 31.7803 24.7927 40.887
0 31.8473 25.6082 19.5602
0 31.7822 25.811 40.873
0 31.9738 26.4484 19.0309
0 31.77 26.7985 40.7533
0 31.7857 27.7773 18.7064
0 32.0599 27.9522 40.5728
0 31.7714 28.7896 18.7759
0 32.1435 28.7964 40.5096
0 31.9359 29.9792 19.0572
0 31.9059 29.6331 40.9173
0 31.9148 30.8938 19.3256
0 31.9255 30.4334 41.8587
0 31.7814 30.7066 42.7092
0 31.8843 31.8082 19.5194
0 31.92 31.1292 43.9617
0 31.7923 31.5789 44.8075
0 31.8701 32.7677 19.5915
0 31.7674 32.7026 45.7625
0 31.8574 33.7609 19.6119
0 31.7762 33.5877 46.133
0 31.8101 34.7646 19.6828
0 31.7563 34.6134 46.3996
0 31.9095 35.9912 19.9231
0 31.7132 35.7615 46.4985
0 31.8025 36.9543 20.2946
0 31.6901 36.9309 46.2969
0 31.7617 37.7847 20.7155
0 31.7368 37.8223 45.8218
0 31.7635 38.9763 21.4836
0 31.7034 38.9079 44.8787
0 31.7498 40.0583 22.3996
0 31.7072 39.8801 43.8321
0 31.6951 41.1276 23.2344
0 31.5459 41.2096 42.1068
0 31.7441 40.749 42.7252
0 31.747 41.7569 23.7194
0 31.5511 42.1099 41.0883
0 31.6725 42.9185 24.4875
0 31.4798 43.1067 40.1465
0 31.5573 44.029 25.433
0 31.7484 43.701 39.731
0 31.5017 44.9916 26.5133
0 30.7983 44.9612 34.7337
0 31.2402 45.1805 38.0731
0 31.6882 44.7796 38.8232
0 31.5313 45.9077 27.6053
0 30.994 46.0426 32.9363
0 31.1664 45.9375 33.8387
0 31.261 45.9279 34.7715
0 31.3021 45.9865 35.7724
0 31.4495 45.9747 36.8367
0 31.7184 45.7271 37.7599
0 31.6337 46.7862 28.7129
0 31.4331 46.9893 29.6862
0 31.3422 47.0431 30.7618
0 31.3902 46.9477 31.8155
0 31.5162 46.8308 32.8028
0 31.6577 46.7317 33.7657
0 32.8469 18.6171 25.6901
0 32.9253 18.251 26.5745
0 32.947 17.9435 27.6136
0 32.9116 17.8741 28.7806
0 32.876 18.018 29.8839
0 32.8451 18.2384 30.8937
0 32.8095 18.4798 31.8432
0 32.7801 18.6837 32.7821
0 32.7601 18.8109 33.7491
0 32.7628 18.8086 34.738
0 32.8095 18.6902 35.7105
0 32.9138 18.531 36.6894
0 33.0099 18.4695 37.7922
0 32.8089 18.7833 38.7755
0 32.7936 19.7889 23.7683
0 33.0551 19.4158 24.5088
0 33.0222 19.5873 39.1383
0 32.765 20.8184 22.8008
0 33.1318 20.4558 23.3953
0 33.1231 20.5005 39.4424
0 33.0022 21.5874 22.4465
0 32.8022 21.7839 39.8434
0 32.8126 22.7516 21.6996
0 32.8967 22.6835 40.116
0 32.9871 23.542 21.3632
0 33.0001 23.619 40.445
0 32.8442 24.6629 20.6277
0 33.0555 24.7337 40.6994
0 32.7731 25.7642 19.7892
0 33.037 25.9245 40.6673
0 32.9272 26.5304 19.3049
0 32.9801 26.9788 40.4616
0 32.9774 27.6455 18.8747
0 32.9322 27.9111 40.2643
0 32.9127 28.9284 18.933
0 32.9144 28.7942 40.2029
0 32.8566 29.9531 19.2734
0 32.9727 29.5478 40.361
0 32.8095 30.8418 19.6004
0 32.8943 30.326 41.0148
0 32.7692 30.7013 41.7227
0 32.9998 31.9413 19.8759
0 32.8596 31.0303 42.8708
0 32.8109 31.2676 43.8508
0 32.7602 31.6542 44.7409
0 32.996 32.8037 19.9894
0 32.7514 32.7092 45.7428
0 32.9829 33.7405 19.9726
0 32.7296 33.5683 46.1367
0 32.9355 34.7797 19.9154
0 32.6916 34.5818 46.4249
0 32.8415 35.8936 19.9977
0 32.6472 35.7325 46.5497
0 32.7718 36.9295 20.296
0 32.6405 36.9237 46.3738
0 32.7542 37.7877 20.7112
0 32.7026 37.8716 45.9218
0 32.7861 38.9593 21.5115
0 32.668 39.0125 45.0071
0 32.8024 40.0252 22.4233
0 32.6732 40.0137 43.9605
0 32.788 41.1066 23.2007
0 32.6926 40.9217 42.8701
0 32.7533 41.7794 23.6709
0 32.7187 41.8174 41.8033
0 32.6853 42.9714 24.3091
0 32.7253 42.7948 40.8165
0 32.7341 43.7237 24.7317
0 32.7114 43.8649 39.9256
0 32.6002 44.8761 25.5295
0 32.6848 44.9776 39.0549
0 32.4984 45.9483 26.5074
0 32.636 46.0234 38.0093
0 32.5114 46.9374 27.5781
0 32.202 47.225 34.9239
0 32.4525 47.0851 35.8985
0 32.6836 46.8098 36.8047
0 32.6776 47.7673 28.7344
0 32.5539 47.9659 29.7009
0 32.4705 48.0716 30.7282
0 32.4553 48.0463 31.7795
0 32.5085 47.9466 32.8038
0 32.6301 47.8064 33.7856
0 33.8911 18.5659 26.6531
0 34.0106 18.253 27.6438
0 34.0242 18.1755 28.7742
0 33.9546 18.3027 29.8512
0 33.8694 18.4977 30.8408
0 33.7901 18.7064 31.7903
0 33.7476 19.8369 24.8045
0 34.0522 19.4929 25.5224
0 34.0537 18.9491 32.9281
0 33.9925 19.1018 33.8481
0 33.999 19.1773 34.779
0 34.0653 19.1881 35.7539
0 34.1469 19.2119 36.8223
0 34.0988 19.4482 37.9455
0 33.7528 19.8333 38.7217
0 34.1096 20.5539 24.5099
0 33.9255 20.7035 38.9928
0 34.071 21.6124 23.5531
0 34.0603 21.5861 39.2693
0 33.9529 22.6857 22.6246
0 33.7778 22.7938 39.7774
0 33.7909 23.7775 21.7715
0 33.9048 23.7071 40.0653
0 34.0406 24.5143 21.4467
0 33.9965 24.7412 40.2939
0 33.9388 25.5461 20.5205
0 33.9875 25.858 40.3105
0 33.8492 26.6442 19.5972
0 33.9137 26.8869 40.1659
0 33.9624 27.6074 19.1304
0 33.8395 27.8315 40.0113
0 33.9012 28.8756 19.0558
0 33.81 28.7608 39.9979
0 33.8119 29.9221 19.3955
0 33.8004 29.5516 40.2228
0 33.7592 30.7975 19.749
0 33.7438 30.3861 40.952
0 33.8784 31.9212 20.0507
0 33.6966 30.8392 41.9566
0 33.7159 31.0588 42.8581
0 33.7354 31.296 43.8322
0 33.7453 31.6532 44.7361
0 33.8557 32.795 20.1805
0 33.7364 32.6667 45.799
0 33.8544 33.7226 20.1556
0 33.6897 33.5048 46.222
0 33.8493 34.7209 20.0649
0 33.625 34.5128 46.5441
0 33.8113 35.8274 20.0281
0 33.7443 35.7333 46.6744
0 33.7726 36.9363 20.264
0 33.5129 36.9536 46.5864
0 33.7536 37.7965 20.7133
0 33.6054 37.9763 46.1048
0 33.7948 38.9058 21.6052
0 33.5875 39.1468 45.1523
0 33.8181 39.9323 22.5348
0 33.6211 40.15 44.0849
0 33.8465 41.0223 23.278
0 33.6595 41.0663 42.9907
0 33.7577 41.747 23.7127
0 33.6987 41.9543 41.9125
0 33.74 42.939 24.2166
0 33.7358 42.8825 40.8876
0 33.7191 43.7799 24.568
0 33.771 43.8994 39.9486
0 33.5334 45.0458 25.1615
0 33.8055 44.9708 39.0634
0 33.657 45.8053 25.5938
0 33.7797 46.0896 38.142
0 33.5982 46.935 26.5336
0 33.6788 47.0545 37.015
0 33.6884 47.8332 27.6915
0 33.6049 48.1953 28.578
0 33.514 48.4636 29.5589
0 33.3711 48.3761 33.9483
0 33.5505 48.0949 34.9125
0 33.7131 47.7513 35.7814
0 33.734 48.689 30.762
0 33.713 48.7373 31.7598
0 33.7331 48.6822 32.7575
0 34.8465 18.7069 27.7492
0 34.872 18.6566 28.7823
0 34.8071 18.7389 29.7884
0 35.0312 19.5645 26.5726
0 35.2093 19.1426 30.864
0 35.0877 19.2465 31.8619
0 34.9792 19.3861 32.8331
0 34.9066 19.5057 33.7949
0 34.8651 19.6039 34.765
0 34.847 19.6705 35.7484
0 34.8236 19.7331 36.7477
0 35.0186 20.6209 25.5594
0 35.0554 20.5624 37.9863
0 34.9336 21.6994 24.6432
0 34.8285 21.7664 38.8481
0 34.8485 22.7476 23.7242
0 34.9991 22.6429 39.1284
0 34.7694 23.7903 22.7921
0 35.151 23.4907 23.4381
0 35.1829 23.5631 39.4599
0 35.0814 24.4886 22.4813
0 34.8289 24.7812 39.883
0 35.0537 25.4553 21.4764
0 34.8413 25.8084 39.9175
0 35.0417 26.4355 20.4163
0 34.7908 26.8067 39.8264
0 34.9084 27.6404 19.4607
0 34.7481 27.7864 39.7306
0 34.9174 28.8012 19.2654
0 34.7606 28.7576 39.8021
0 34.8039 29.8722 19.5038
0 34.7567 29.5138 40.1261
0 34.9393 31.0505 19.8808
0 34.6854 30.3299 40.9618
0 34.7319 30.685 41.725
0 34.8529 31.8948 20.1491
0 34.66 30.9813 42.8972