2061
Surface. Timestep: 1
0 19.8384 24.8107 27.8063
0 19.6523 24.6998 28.7776
0 19.5901 24.7234 29.8336
0 19.8102 24.8239 30.8208
0 19.6121 25.7241 26.739
0 19.376 25.6811 27.7295
0 19.2659 25.7015 28.8049
0 19.3896 25.7756 29.9013
0 19.7186 25.8228 30.8631
0 19.7607 26.8301 25.7924
0 19.4895 26.8575 26.7385
0 19.3249 26.8763 27.7559
0 19.2801 26.8811 28.8285
0 19.4314 26.8545 29.895
0 19.7302 26.8263 30.8546
0 19.7925 27.8481 26.8091
0 19.6414 27.8981 27.7896
0 19.5575 27.9043 28.803
0 19.5672 27.8641 29.8349
0 19.7369 27.8186 30.8335
0 19.8651 28.8136 28.8109
0 19.7301 28.8386 29.7948
0 19.7165 28.8106 30.8112
0 19.8473 28.7958 36.7575
0 19.8508 28.7979 37.7565
0 19.7061 29.8172 30.7736
0 19.6471 29.7682 31.7922
0 19.7305 29.7584 32.7928
0 19.7813 29.7665 33.7768
0 19.7145 29.7304 34.7475
0 19.5369 29.64 35.6985
0 19.3678 29.5617 36.7261
0 19.3978 29.5953 37.8394
0 19.6762 29.7262 38.8367
0 19.8528 30.8044 30.7914
0 19.5517 30.8331 31.72
0 19.4503 30.7655 32.7392
0 19.4132 30.7007 33.7239
0 19.3278 30.6491 34.6731
0 19.1236 30.6042 35.6346
0 18.9722 30.5933 36.7411
0 19.0847 30.6477 37.9269
0 19.4664 30.7384 38.9329
0 19.8465 31.8049 31.782
0 19.5824 31.8818 32.7007
0 19.3549 31.8642 33.6465
0 19.143 31.8166 34.6074
0 18.9378 31.8143 35.6182
0 18.822 31.8259 36.7621
0 19.0015 31.834 37.9683
0 19.4349 31.8209 38.9568
0 19.6977 32.8745 33.7107
0 19.4043 32.9681 34.628
0 19.1519 33.0236 35.6316
0 19.0296 33.0513 36.7637
0 19.1972 32.9922 37.9315
0 19.5921 32.871 38.8867
0 19.8518 33.7926 34.7653
0 19.6208 33.9456 35.7043
0 19.505 34.0144 36.7556
0 19.6067 33.9416 37.8282
0 20.787 23.723 28.7526
0 20.5248 23.4881 29.7055
0 20.3998 23.5219 30.8499
0 20.6071 23.7298 31.8857
0 20.79 24.6604 26.7386
0 20.5641 24.3377 27.6003
0 20.3843 24.7321 32.0121
0 20.8281 24.8335 32.8046
0 20.8225 25.7755 24.7921
0 20.512 25.3986 25.5233
0 20.3287 25.7791 32.0492
0 20.7675 25.8219 32.8337
0 20.8172 26.805 23.8139
0 20.368 26.6767 24.5223
0 20.2813 26.7685 32.0418
0 20.6775 26.7948 32.8631
0 20.7472 27.8353 23.8007
0 20.4231 27.9196 24.6612
0 20.0904 28.0324 25.5694
0 20.1438 27.7085 32.0207
0 20.4863 27.7188 32.8993
0 20.7281 27.7639 33.8052
0 20.8252 27.7968 34.7743
0 20.8003 27.7706 35.7632
0 20.7755 27.7293 36.7617
0 20.8333 27.7814 37.762
0 20.7975 28.8449 24.8181
0 20.5763 28.9632 25.752
0 20.3765 29.0567 26.7156
0 20.1854 29.1257 27.6924
0 19.9076 28.6491 31.9553
0 20.1784 28.5871 32.8952
0 20.3406 28.5689 33.8056
0 20.3655 28.5177 34.7348
0 20.3039 28.4009 35.6905
0 20.5326 28.4925 38.9467
0 20.8461 29.8165 26.8201
0 20.6687 29.92 27.7663
0 20.4317 30.0234 28.6807
0 20.0938 30.0834 29.5841
0 20.5193 29.6055 40.0367
0 20.8568 30.8033 28.8087
0 20.5416 30.987 29.6472
0 20.2499 30.6674 40.2323
0 20.7923 30.7818 40.8067
0 20.6247 31.9827 30.6464
0 20.2063 31.8539 40.2605
0 20.7592 31.8024 40.8385
0 20.7864 32.873 31.736
0 20.477 33.1545 32.5315
0 20.3927 32.9716 40.1189
0 20.6839 34.0004 33.6396
0 20.3988 34.3114 34.4868
0 20.3184 34.1973 39.0605
0 20.7155 33.8863 39.86
0 20.7046 35.0072 35.6933
0 20.5976 35.1465 36.7339
0 20.6268 35.074 37.8189
0 20.804 34.841 38.7829
0 21.6704 22.6331 29.6827
0 21.4181 22.4374 30.7116
0 21.3924 22.4918 31.845
0 21.517 22.6418 32.8797
0 21.7498 22.8014 33.8274
0 21.6115 23.418 28.5297
0 21.1721 23.5886 33.0529
0 21.5498 23.7774 33.9386
0 21.7858 24.5018 26.654
0 21.5653 24.0841 27.408
0 21.4678 24.7781 33.9907
0 21.7375 25.4941 24.6379
0 21.5649 25.0609 25.3953
0 21.3578 25.7318 34.0181
0 21.7144 25.7871 34.837
0 21.6899 26.6456 22.7469
0 21.3912 26.3658 23.4842
0 21.152 26.6133 34.0313
0 21.4227 26.6257 34.8957
0 21.6278 26.6625 35.8285
0 21.8112 26.777 36.776
0 21.7138 27.7746 20.8064
0 21.4383 27.6933 21.7172
0 21.1355 27.644 22.5985
0 21.4969 27.3067 37.9034
0 21.7113 27.5834 38.8715
0 21.7258 28.8377 20.8167
0 21.4805 28.8815 21.7628
0 21.2869 28.9463 22.7308
0 21.1309 29.0282 23.6677
0 21.618 28.479 40.0489
0 21.8234 29.8194 21.8507
0 21.7093 29.869 22.8297
0 21.6005 29.9253 23.8018
0 21.4693 30.0136 24.7535
0 21.2996 30.1321 25.694
0 21.678 29.6307 41.0381
0 21.7789 30.8475 25.8144
0 21.6202 30.9549 26.7659
0 21.4367 31.0821 27.6965
0 21.4799 30.6492 41.371
0 21.7032 31.9124 28.7479
0 21.4418 32.143 29.5892
0 21.4285 31.8511 41.4341
0 21.6803 32.9926 30.6869
0 21.4607 33.3092 31.5099
0 21.5541 32.9676 41.2106
0 21.6998 34.0422 32.6337
0 21.7773 33.8606 40.8542
0 21.8558 34.7753 33.7779
0 21.6962 35.1286 34.611
0 21.5674 35.4516 35.5536
0 21.5189 35.3117 38.9756
0 21.7573 34.912 39.8444
0 21.852 35.7783 36.7588
0 21.8523 35.7765 37.7545
0 22.6596 21.681 29.6921
0 22.4641 21.466 30.7064
0 22.4456 21.4394 31.7971
0 22.4846 21.5029 32.8468
0 22.6058 21.6344 33.8722
0 22.6848 22.6734 28.6157
0 22.5451 22.7116 35.0087
0 22.753 23.6442 27.6496
0 22.3598 23.7094 35.1372
0 22.8339 24.7674 25.7968
0 22.7272 24.3919 26.5748
0 22.2034 24.6655 35.1967
0 22.6899 24.7744 35.8923
0 22.7981 25.6809 23.7808
0 22.6924 25.3218 24.5945
0 22.4055 25.5902 36.0287
0 22.7905 25.7814 36.8009
0 22.7305 26.6292 20.7852
0 22.6031 26.4329 21.7324
0 22.4585 26.2018 22.6023
0 22.6471 26.5483 37.8937
0 22.5826 27.6558 19.5569
0 22.5327 27.2196 39.1105
0 22.7921 27.6884 39.85
0 22.5238 28.8588 19.5033
0 22.8177 28.7231 40.8471
0 22.7226 29.8582 19.7508
0 22.2208 30.0207 20.5365
0 22.6802 29.4693 41.3736
0 22.5876 30.9004 20.7563
0 22.3501 30.9947 21.7436
0 22.222 31.0573 22.7672
0 22.1586 31.1026 23.7668
0 22.0798 31.1681 24.7267
0 22.8256 30.7719 41.8577
0 22.7096 31.8431 21.8357
0 22.6228 31.8815 22.8312
0 22.5731 31.9075 23.8247
0 22.5172 31.9421 24.8072
0 22.4359 32.0041 25.7793
0 22.3299 32.1008 26.7412
0 22.2099 32.2263 27.6799
0 22.8039 31.8006 41.9305
0 22.8316 32.7945 25.8299
0 22.7689 32.8296 26.8168
0 22.6859 32.889 27.7924
0 22.557 33.003 28.7388
0 22.3996 33.1902 29.6508
0 22.8367 32.7992 41.7772
0 22.7078 33.9173 30.75
0 22.5655 34.1355 31.6561
0 22.6517 34.0633 41.203
0 22.8167 34.8145 32.7663
0 22.6625 35.1168 33.6213
0 22.5867 35.4519 34.4821
0 22.5774 35.2605 40.1086
0 22.8492 34.7752 40.7366
0 22.7592 35.9693 35.7122
0 22.7003 36.1238 36.7126
0 22.6845 36.1467 37.7764
0 22.7518 35.9702 38.8077
0 23.6249 20.6421 29.7218
0 23.5633 20.5314 30.7686
0 23.5955 20.5411 31.8001
0 23.6265 20.5832 32.8144
0 23.696 20.6845 33.8242
0 23.5607 21.6703 28.5703
0 23.4171 21.5064 35.0853
0 23.824 21.843 35.7877
0 23.745 22.7775 27.7089
0 23.5936 22.7276 36.0339
0 23.809 23.7978 26.7855
0 23.3858 23.6616 36.2121
0 23.7039 24.5449 25.6844
0 23.6622 24.7262 36.9325
0 23.7608 25.6641 22.7973
0 23.6371 25.4025 23.6828
0 23.5113 25.0871 24.524
0 23.7207 25.6958 37.8721
0 23.7906 26.6904 19.7671
0 23.5874 26.2917 20.618
0 23.4114 26.0514 21.6019
0 23.699 26.5632 38.9561
0 23.5123 27.4352 19.1372
0 23.7427 27.5118 40.0591
0 23.4093 28.7836 18.9394
0 23.8154 28.6524 40.9689
0 23.4288 29.9167 19.1742
0 23.7746 29.439 41.4947
0 23.4485 30.8756 19.4168
0 23.8281 30.7499 41.9391
0 23.4612 31.823 19.575
0 22.9661 31.9676 20.4702
0 23.8009 31.7865 42.0674
0 23.4637 32.8116 19.6692
0 23.1366 32.9172 20.6733
0 23.0216 33.0071 21.7558
0 22.9793 33.0709 22.7973
0 22.9596 33.1113 23.8005
0 22.9276 33.1475 24.7978
0 23.7948 32.8366 41.9725
0 23.5312 33.8343 19.7545
0 23.3423 33.9086 20.7881
0 23.3166 33.9503 21.836
0 23.3339 33.9727 22.8482
0 23.3436 33.9852 23.8383
0 23.3339 33.9938 24.8264
0 23.3083 34.0062 25.8251
0 23.3019 34.0102 26.8178
0 23.2679 34.0343 27.7955
0 23.2082 34.0978 28.769
0 23.1322 34.2168 29.7352
0 23.6141 34.1663 41.4881
0 23.7567 34.8035 19.8459
0 23.6442 34.8519 20.8506
0 23.6677 34.8514 21.8617
0 23.711 34.8366 22.8552
0 23.7322 34.8278 23.844
0 23.7122 34.8341 24.8337
0 23.6795 34.8431 25.8262
0 23.6513 34.8456 26.8179
0 23.6012 34.8563 27.8073
0 23.5489 34.8734 28.7992
0 23.4956 34.9094 29.7938
0 23.4589 34.9644 30.783
0 23.3987 35.0677 31.7438
0 23.7389 34.9629 40.9781
0 23.7872 35.7781 28.8083
0 23.7494 35.7846 29.8034
0 23.7387 35.7889 30.7978
0 23.7096 35.8022 31.788
0 23.6478 35.8484 32.7695
0 23.5705 35.9607 33.7298
0 23.5185 36.1357 34.6661
0 23.5075 36.3176 35.6115
0 23.4702 36.4864 36.6293
0 23.4655 36.541 37.769
0 23.5469 36.3624 38.9191
0 23.7279 35.9859 39.8775
0 23.83 36.7604 30.7985
0 23.807 36.7605 31.7922
0 23.8215 36.7611 32.7865
0 23.8252 37.7532 30.7971
0 23.7435 37.7465 31.7891
0 23.7471 37.7464 32.7943
0 23.8193 38.7482 30.7944
0 23.6606 38.7505 31.7809
0 23.6715 38.7546 32.8087
0 23.7706 39.761 31.7875
0 23.8285 39.7464 32.7891
0 24.8294 19.8603 28.8078
0 24.7305 19.7171 29.7865
0 24.7359 19.7058 30.8014
0 24.7658 19.7548 31.7982
0 24.7878 19.7928 32.7897
0 24.8099 19.8306 33.7832
0 24.7372 20.8034 27.7444
0 24.3572 20.4833 28.5266
0 24.4029 20.4335 35.0041
0 24.7034 20.7597 35.8711
0 24.4616 21.6901 27.5265
0 24.398 21.5713 36.19
0 24.6654 22.7676 26.7054
0 24.6735 22.7715 36.9513
0 24.6882 23.728 25.7441
0 24.476 23.6616 37.1577
0 24.7224 24.71 23.7912
0 24.5314 24.4853 24.6766
0 24.6889 24.7233 37.9192
0 24.7945 25.7419 20.8217
0 24.6221 25.4821 21.7316
0 24.4531 25.2783 22.6614
0 24.7831 25.7633 38.8255
0 24.7371 26.5203 19.56
0 24.8364 26.8219 39.7438
0 24.8368 27.8141 18.858
0 24.7214 27.4356 40.2345
0 24.8331 28.8098 18.7937
0 24.8118 28.639 41.0269
0 24.8299 29.8042 18.8153
0 24.7796 29.4375 41.5202
0 24.8092 30.7857 18.7662
0 24.8134 30.7279 41.9869
0 24.7195 31.7389 18.6152
0 24.7651 31.7561 42.1763
0 24.5748 32.717 18.4593
0 24.732 32.8417 42.1609
0 24.4731 33.8035 18.3897
0 24.7676 33.8461 41.9216
0 24.5723 34.9131 18.5509
0 24.6017 35.1263 41.2548
0 24.4781 36.0627 19.6889
0 24.3147 36.1523 20.8016
0 24.3603 36.1164 21.868
0 24.4117 36.073 22.8624
0 24.4195 36.0541 23.8281
0 24.3534 36.0753 24.7835
0 24.2122 36.0951 25.7443
0 24.0433 36.0824 26.7224
0 23.8697 36.0496 27.7334
0 24.5288 36.3033 40.1052
0 24.8094 35.8088 40.7791
0 24.8339 36.7626 24.8369
0 24.6585 36.868 25.7827
0 24.42 36.9503 26.7142
0 24.1605 36.9753 27.6764
0 23.9236 36.9419 28.702
0 23.7931 36.8704 29.7924
0 23.943 36.9102 33.9342
0 24.0987 37.0543 34.8614
0 24.2864 37.1577 35.7823
0 24.4262 37.212 36.7713
0 24.5458 37.1667 37.812
0 24.6858 36.9944 38.8269
0 24.8034 37.7718 26.8099
0 24.4801 37.8925 27.6888
0 24.1528 37.9303 28.6402
0 23.8897 37.88 29.6914
0 24.0095 37.8265 34.0634
0 24.338 37.902 34.968
0 24.6874 37.8469 35.8246
0 24.812 38.759 27.8046
0 24.44 38.8848 28.649
0 24.0603 38.9257 29.6139
0 24.14 38.974 34.1659
0 24.6366 38.86 34.9278
0 24.7417 39.7842 28.758
0 24.3428 39.9275 29.6256
0 24.019 40.0376 30.6911
0 24.6265 39.9595 33.973
0 24.7003 40.8133 29.7458
0 24.4739 40.972 30.7567
0 24.5345 41.0107 31.8693
0 24.7809 40.8164 32.83
0 25.6758 19.6903 27.716
0 25.4925 19.3921 28.6646
0 25.4602 19.2469 29.7436
0 25.4966 19.2504 30.7948
0 25.5115 19.2879 31.8016
0 25.5141 19.3023 32.7998
0 25.4956 19.3232 33.8162
0 25.4791 19.4098 34.8693
0 25.5887 19.6419 35.8914
0 25.5724 20.7059 26.6598
0 25.6238 20.7515 36.952
0 25.6062 21.7612 25.7191
0 25.2253 21.607 26.4743
0 25.4206 21.657 37.1887
0 25.6269 22.7615 24.7553
0 25.3079 22.647 25.6004
0 25.7317 22.8062 37.8662
0 25.5588 23.679 23.7333
0 25.2861 23.547 24.6371
0 25.5409 23.6899 38.0825
0 25.7233 24.7051 21.7756
0 25.4283 24.465 22.6408
0 25.7655 24.7887 38.8325
0 25.6428 25.4377 20.5831
0 25.5517 25.5496 39.1822
0 25.7397 26.4783 19.3785
0 25.7418 26.6819 39.9755
0 25.8313 27.8152 18.8597
0 25.6556 27.3912 40.4305
0 25.8316 28.8077 18.7977
0 25.7764 28.6104 41.1064
0 25.8261 29.7943 18.7618
0 25.7134 29.4084 41.5875
0 25.7999 30.7411 18.621
0 25.7619 30.6741 42.0894
0 25.7162 31.6318 18.3406
0 25.6485 31.6848 42.3756
0 25.5772 32.6102 18.0294
0 25.5534 32.8171 42.4329
0 25.4922 33.8113 17.8622
0 25.5532 33.9212 42.2526
0 25.5591 35.06 18.0852
0 25.6906 34.8781 41.9368
0 25.7314 35.9735 18.5853
0 25.5673 36.0623 41.074
0 25.7076 37.0041 19.7213
0 25.4636 37.2717 20.7264
0 25.3819 37.2652 21.8285
0 25.3762 37.2103 22.8365
0 25.3357 37.2094 23.7838
0 25.5965 37.0611 39.9323
0 25.7234 37.8495 24.8024
0 25.4989 38.0202 25.6808
0 25.4481 38.1513 36.901
0 25.6475 37.9841 37.8236
0 25.8048 37.788 38.7601
0 25.6049 38.9156 26.6725
0 25.6567 38.9563 35.9113
0 25.5873 39.9074 27.629
0 25.5262 40.2752 34.2238
0 25.7921 39.8325 34.8431
0 25.5015 40.9581 28.5812
0 25.6318 41.1216 33.0546
0 25.5729 41.9599 29.7091
0 25.4962 42.0958 30.8371
0 25.7206 41.8977 31.881
0 26.7801 18.7623 28.796
0 26.7613 18.7084 29.8007
0 26.7651 18.7203 30.8013
0 26.7744 18.7444 31.7951
0 26.7788 18.7571 32.7845
0 26.7602 18.7157 33.7699
0 26.7118 18.6403 34.761
0 26.6545 18.6293 35.8008
0 26.7858 18.8394 36.781
0 26.8124 19.8571 25.8235
0 26.5703 19.5644 26.6609
0 26.3846 19.2254 27.5578
0 26.3929 19.5253 37.0969
0 26.8216 19.8686 37.7562
0 26.6597 20.7443 24.7468
0 26.3442 20.5129 25.5671
0 26.6209 20.773 37.9662
0 26.5957 21.7213 23.7036
0 26.2298 21.5406 24.5501
0 26.4473 21.7019 38.163
0 26.671 22.7477 22.7249
0 26.2304 22.5418 23.5145
0 26.7795 22.8316 38.7998
0 26.7571 23.7741 21.7796
0 26.3119 23.4772 22.4635
0 26.6068 23.7366 39.0102
0 26.7864 24.7645 20.7911
0 26.4297 24.5982 39.2826
0 26.8054 25.7587 19.7846
0 26.7186 25.7464 39.9365
0 26.7479 26.4923 19.2405
0 26.6061 26.5773 40.2758
0 26.8247 27.818 18.8754
0 26.7935 27.7603 40.8532
0 26.8243 28.8067 18.8094
0 26.7166 28.5392 41.2603
0 26.8207 29.7856 18.7348
0 26.7909 29.729 41.875
0 26.8114 30.717 18.5556
0 26.6594 30.5558 42.2928
0 26.7974 31.5989 18.2568
0 26.7414 31.7312 42.8668
0 26.7709 32.5754 17.8882
0 26.5565 32.7329 43.0581
0 26.8237 33.7794 17.8266
0 26.5278 33.8234 43.0156
0 26.7676 35.0764 17.9444
0 26.6746 34.8274 42.8458
0 26.796 36.0193 18.4721
0 26.5191 35.9591 42
0 26.6966 37.1998 19.509
0 26.4876 37.0513 40.9967
0 26.7335 37.9451 20.784
0 26.5762 38.1241 21.774
0 26.4743 38.1799 22.7801
0 26.365 38.2402 23.7303
0 26.4234 38.237 38.9167
0 26.6144 37.9723 39.8565
0 26.71 38.8612 24.788
0 26.4716 39.0722 25.6222
0 26.4134 39.3689 36.0639
0 26.5966 39.069 36.8841
0 26.7543 38.8402 37.7843
0 26.5506 39.9713 26.5958
0 26.709 40.0577 34.968
0 26.4981 40.996 27.5181
0 26.8004 40.8262 33.8512
0 26.8222 41.7293 27.8158
0 26.4216 42.0891 28.5135
0 26.5349 42.2222 32.15
0 26.8238 41.7296 32.7878
0 26.8136 42.7317 28.8041
0 26.5858 42.9829 29.7464
0 26.6207 42.9853 30.8781
0 27.7719 18.782 26.7988
0 27.7063 18.5907 27.7655
0 27.6835 18.4526 28.7709
0 27.6771 18.4002 29.7964
0 27.6907 18.4131 30.8093
0 27.7075 18.4399 31.8051
0 27.7131 18.4466 32.7874
0 27.7034 18.405 33.7524
0 27.6433 18.2721 34.7122
0 27.501 18.1002 35.7716
0 27.3976 18.2752 36.9771
0 27.6313 18.7204 37.9155
0 27.6526 19.6727 24.7316
0 27.448 19.3875 25.6118
0 27.3604 19.5539 38.2345
0 27.5053 20.5755 23.5842
0 27.6935 20.8074 38.9131
0 27.585 21.6672 22.5751
0 27.5451 21.7386 39.1098
0 27.7652 22.7984 21.7709
0 27.3919 22.6633 39.3006
0 27.5447 23.5326 21.3898
0 27.7067 23.7914 39.8924
0 27.7035 24.595 20.5481
0 27.5662 24.7202 40.1114
0 27.7883 25.6901 19.6628
0 27.4753 25.6366 40.357
0 27.7661 26.5165 19.1548
0 27.7828 26.7969 40.8232
0 27.8178 27.8155 18.8567
0 27.7161 27.6731 41.1084
0 27.8149 28.8045 18.7846
0 27.6792 28.4587 41.4905
0 27.8134 29.7833 18.7079
0 27.7438 29.6079 42.0771
0 27.8228 30.7211 18.5455
0 27.7831 30.7364 42.8094
0 27.8632 31.618 18.2727
0 27.5156 31.4817 43.2432
0 27.9269 32.6036 17.9596
0 27.4935 32.6174 44.022
0 27.8196 33.7794 17.8723
0 27.2783 33.7512 44.1136
0 27.6878 33.7657 44.8124
0 27.9142 35.0256 18.0226
0 27.3958 34.8734 43.9823
0 27.7799 34.7838 44.7334
0 27.8482 35.978 18.4899
0 27.2967 35.9981 43.069
0 27.6616 35.8359 43.8083
0 27.7607 37.2335 19.356
0 27.28 37.0917 42.0801
0 27.642 36.8596 42.8292
0 27.6443 38.2267 20.5606
0 27.334 38.1138 40.9902
0 27.6546 37.8593 41.8237
0 27.7688 38.8401 21.8224
0 27.618 39.0358 22.7643
0 27.46 39.1773 23.6984
0 27.3644 39.3019 37.873
0 27.4547 39.1285 38.8397
0 27.5696 38.9709 39.817
0 27.7535 38.797 40.7609
0 27.7147 39.8477 24.7771
0 27.4338 40.0923 25.572
0 27.5902 40.3163 35.0554
0 27.6841 40.0162 35.8574
0 27.7766 39.808 36.7754
0 27.4809 41.0216 26.5271
0 27.7303 40.9927 33.9802
0 27.818 41.7275 26.8245
0 27.7365 41.9076 32.9685
0 27.7642 42.7716 27.767
0 27.4185 43.1514 28.5371
0 27.6713 42.9434 31.9966
0 27.6837 43.8933 29.7886
0 27.7583 43.8002 30.8311
0 28.7975 17.7717 35.7359
0 28.7135 17.5204 36.7353
0 28.6963 17.6543 37.8556
0 28.808 18.8693 24.8348
0 28.6893 18.6038 25.752
0 28.632 18.4017 26.7341
0 28.6254 18.2512 27.7474
0 28.6426 18.1695 28.7779
0 28.6564 18.1395 29.8136
0 28.6847 18.1741 30.8372
0 28.7181 18.2278 31.8319
0 28.7431 18.2638 32.7989
0 28.7489 18.2127 33.7387
0 28.7199 18.0388 34.6727
0 28.7393 18.8083 38.8765
0 28.6232 19.5758 23.6383
0 28.5875 19.6872 39.1675
0 28.6113 20.6244 22.5428
0 28.4469 20.606 39.4281
0 28.7648 21.8087 21.7647
0 28.7419 21.8107 39.8734
0 28.6022 22.624 21.4101
0 28.5835 22.7054 40.1306
0 28.772 23.7767 20.7465
0 28.4166 23.6227 40.4027
0 28.6659 24.4965 20.3062
0 28.7271 24.8047 40.8827
0 28.7833 25.6641 19.5674
0 28.6759 25.7849 41.0275
0 28.7843 26.5464 19.1265
0 28.675 26.7475 41.1711
0 28.811 27.8109 18.8321
0 28.7005 27.6421 41.386
0 28.808 28.7998 18.7353
0 28.8061 28.7837 41.7867
0 28.8126 29.7859 18.6691
0 28.7898 29.5007 42.2259
0 28.8367 30.7483 18.5609
0 28.7525 30.5488 43.0148
0 28.9059 31.6872 18.3818
0 28.6949 31.5261 43.9843
0 29.0057 32.6734 18.1835
0 28.6654 32.5626 45.0182
0 29.0512 33.7916 18.0843
0 28.8085 33.7771 45.7104
0 28.9807 34.9341 18.2377
0 28.7957 34.7777 45.7331
0 28.8653 35.8956 18.5984
0 28.5081 35.943 45.0097
0 28.8394 37.1691 19.2962
0 28.4432 36.9965 44.0087
0 28.8097 37.7859 19.8329
0 28.6878 38.3557 20.335
0 28.4319 38.0167 42.9845
0 28.7998 37.7629 43.7244
0 28.6386 39.1734 21.6224
0 28.4743 39.0104 41.93
0 28.8106 38.7477 42.7217
0 28.7883 39.7823 22.8307
0 28.5801 40.0503 23.6853
0 28.4071 40.4071 35.8975
0 28.4136 40.2563 36.8
0 28.41 40.1713 37.7709
0 28.417 40.1115 38.7833
0 28.4842 40.0289 39.8105
0 28.6432 39.8909 40.8002
0 28.731 40.8201 24.7744
0 28.4118 41.1108 25.5105
0 28.5609 41.2302 34.156
0 28.7248 40.881 34.8406
0 28.7792 41.7566 25.8018
0 28.558 42.1045 33.222
0 28.7597 42.7682 26.7737
0 28.7943 42.741 32.8106
0 28.7667 43.7634 27.7794
0 28.4867 44.1089 28.6184
0 28.3037 44.3713 29.7505
0 28.4142 44.2243 31.0099
0 28.728 43.8125 31.8811
0 29.8139 17.7719 35.7339
0 29.8274 17.4722 36.6966
0 29.7908 17.3864 37.8882
0 29.8047 18.8749 23.8433
0 29.7095 18.534 24.7137
0 29.6626 18.2628 25.6775
0 29.6314 18.0574 26.7058
0 29.6432 17.9668 27.7627
0 29.6685 17.9345 28.7984
0 29.6997 17.944 29.8434
0 29.7405 18.026 30.8756
0 29.7723 18.1321 31.8674
0 29.7951 18.2079 32.8266
0 29.8162 18.1977 33.754
0 29.8308 18.037 34.6618
0 29.7097 18.6102 39.1808
0 29.735 19.7148 22.7005
0 29.6179 19.4812 39.5436
0 29.7882 20.8384 21.815
0 29.7659 20.7996 39.9197
0 29.6372 21.6359 21.4194
0 29.6706 21.6556 40.2403
0 29.8012 22.8456 20.8521
0 29.791 22.8311 40.7762
0 29.7089 23.6796 20.5041
0 29.6673 23.716 41.1079
0 29.6668 24.4545 20.0919
0 29.5912 24.7265 41.3594
0 29.7835 25.6633 19.5003
0 29.6309 25.7946 41.4576
0 29.7843 26.567 19.1135
0 29.72 26.7968 41.4889
0 29.8047 27.8096 18.8245
0 29.8326 27.7099 41.5692
0 29.8077 28.8029 18.7296
0 29.8144 28.7837 41.8003
0 29.8175 29.8004 18.7081
0 29.92 29.5234 42.1816
0 29.8404 30.7875 18.6811
0 29.8572 30.4963 43.0211
0 29.8864 31.7674 18.619
0 29.8088 31.3913 44.0797
0 29.9511 32.7568 18.5444
0 29.779 32.4566 45.1512
0 29.9834 33.7834 18.5032
0 29.801 33.7331 45.8436
0 29.9336 34.8271 18.5701
0 29.7556 34.771 46.0128
0 29.8303 35.7958 18.7951
0 29.7674 35.8098 45.8403
0 29.888 37.0475 19.3453
0 29.5701 37.021 45.0996
0 29.8066 37.7804 19.8324
0 29.4878 38.0948 44.1188
0 29.7938 38.844 20.7769
0 29.6595 39.3791 21.3917
0 29.45 39.1282 43.0872
0 29.7989 38.7547 43.7227
0 29.6637 40.0986 22.6249
0 29.4866 40.0961 41.9821
0 29.733 40.8521 23.7553
0 29.378 41.1563 35.7934
0 29.3496 41.1271 36.7269
0 29.3052 41.1369 37.7361
0 29.3328 41.1334 38.7843
0 29.4436 41.0838 39.8398
0 29.6597 40.8989 40.8132
0 29.7648 41.7729 24.7921
0 29.472 42.0183 34.0592
0 29.7365 41.7813 34.7994
0 29.7858 41.7406 37.7533
0 29.7432 42.7793 25.7682
0 29.8008 42.7236 33.7823
0 29.7344 43.783 26.7594
0 29.7129 43.7735 32.8604
0 29.798 44.7158 27.8131
0 29.5581 44.9937 28.6965
0 29.4062 45.1581 29.7599
0 29.4335 45.0821 30.9087
0 29.6858 44.8047 31.8621
0 30.8481 17.6734 36.7263
0 30.8778 17.59 37.8032
0 30.7916 18.7118 23.7638
0 30.7977 18.3584 24.6613
0 30.8149 18.0973 25.644
0 30.8146 17.8883 26.6776
0 30.7913 17.798 27.7579
0 30.7888 17.7958 28.825
0 30.8163 17.8685 29.885
0 30.8309 18.0129 30.9041
0 30.8357 18.1494 31.8797
0 30.8437 18.2461 32.8366
0 30.857 18.2656 33.7694
0 30.8861 18.1461 34.6861
0 30.931 17.9067 35.6298
0 30.8556 18.5444 39.1991
0 30.7536 19.5093 22.5323
0 30.8483 19.398 39.6346
0 30.7367 20.681 21.5751
0 30.8035 20.7633 40.0062
0 30.6493 21.4586 21.0912
0 30.8062 21.5896 40.3625
0 30.7336 22.7407 20.5844
0 30.8012 22.7612 40.9118
0 30.7006 23.6059 20.2422
0 30.7976 23.622 41.3447
0 30.7933 24.8092 19.7973
0 30.8218 24.7186 41.6415
0 30.7936 25.6661 19.4518
0 30.8764 25.8725 41.5975
0 30.7938 26.5716 19.0859
0 30.9259 26.8858 41.4536
0 30.7984 27.8096 18.8143
0 30.9934 27.8225 41.3762
0 30.801 28.8114 18.7656
0 31.1209 28.7101 41.4056
0 30.8055 29.8098 18.8112
0 30.8932 29.7128 41.8792
0 31.0422 30.8749 18.8952
0 30.8554 30.6889 42.8127
0 31.1358 31.8348 19.0392
0 30.8789 31.5188 43.9257
0 31.185 32.7893 19.1411
0 30.8498 32.5233 45.0327
0 31.2066 33.7818 19.1505
0 30.8034 33.7595 45.7532
0 31.1702 34.8284 19.1404
0 30.8016 34.7408 46.0063
0 31.0437 35.9073 19.2092
0 30.7829 35.8125 45.9521
0 30.8902 36.9152 19.4764
0 30.5909 37.142 45.4427
0 30.8804 38.2631 20.1572
0 30.7345 37.8941 44.9104
0 30.8016 38.8652 20.7437
0 30.6526 39.0016 44.0195
0 30.7949 39.7856 21.8213
0 30.6921 40.286 22.4215
0 30.6158 40.0416 43.0006
0 30.633 41.1258 23.4781
0 30.6551 40.9664 41.8977
0 30.5518 42.0766 24.4449
0 30.0279 42.1225 35.7479
0 29.9936 42.1604 36.6937
0 30.1662 42.2295 38.9038
0 30.4644 42.0702 39.9199
0 30.7561 41.7838 40.7707
0 30.4406 43.1126 25.3993
0 30.3073 42.8985 34.8779
0 30.4039 42.8692 35.7775
0 30.3999 42.8999 36.762
0 30.4622 42.9139 37.7997
0 30.6532 42.8306 38.7988
0 30.7328 43.7816 25.7533
0 30.3752 43.8608 33.9483
0 30.6067 43.7742 34.8114
0 30.7136 43.7435 35.7736
0 30.7649 43.7289 36.7632
0 30.7143 44.792 26.7502
0 30.4127 45.1082 27.5418
0 30.3458 44.9056 32.9879
0 30.6637 44.7561 33.8251
0 30.5817 45.9227 28.7136
0 30.3869 46.0816 29.7245
0 30.3236 46.0724 30.8329
0 30.4395 45.9201 31.8889
0 30.689 45.7536 32.824
0 31.8134 18.804 23.8121
0 31.9172 18.5015 24.714
0 31.9885 18.2712 25.6765
0 32.026 18.0628 26.6739
0 32.0128 17.9205 27.7314
0 31.9732 17.8929 28.8218
0 31.9426 17.981 29.8851
0 31.9067 18.1133 30.8947
0 31.8841 18.2571 31.8748
0 31.8688 18.3786 32.8351
0 31.8692 18.4267 33.7794
0 31.9004 18.3458 34.718
0 31.973 18.1726 35.6858
0 32.0915 18.0069 36.7837
0 32.1253 18.1363 38.0511
0 31.9011 18.6793 38.9724
0 31.8999 19.5076 22.5724
0 32.0219 19.4717 39.4226
0 31.838 20.568 21.4767
0 31.8279 20.8059 39.8941
0 31.7864 21.7998 20.7433
0 31.9149 21.6557 40.2239
0 31.7989 22.6823 20.3935
0 31.8001 22.8398 40.7566
0 31.8562 23.5935 20.1066
0 31.9381 23.7151 41.1164
0 31.7986 24.8078 19.7819
0 32.0222 24.7887 41.3156
0 31.8218 25.6778 19.4661
0 31.9932 25.8837 41.2391
0 31.8292 26.569 19.0995
0 31.9374 26.8802 41.0741
0 31.7919 27.8095 18.8143
0 31.8941 27.8412 40.9341
0 31.7908 28.817 18.7694
0 31.8941 28.8049 40.8883
0 31.8804 29.9932 18.8914
0 32.0037 29.7193 40.9807
0 31.954 30.9586 19.1924
0 31.8944 30.6858 41.8186
0 31.9601 31.8734 19.4358
0 31.9979 31.3705 42.938
0 31.8099 31.7402 43.7459
0 31.9304 32.8087 19.5808
0 31.8266 32.6122 44.8897
0 31.9313 33.7765 19.5997
0 31.8568 33.308 45.4869
0 31.9399 34.7692 19.5607
0 31.7967 34.737 45.9446
0 31.9171 35.7948 19.5492
0 31.7836 35.7957 45.9436
0 31.8437 36.81 19.6842
0 31.6555 37.1352 45.6082
0 31.9444 38.1291 20.2482
0 31.7218 37.9743 45.0707
0 31.8058 38.8163 20.7874
0 31.6309 39.1459 44.2617
0 31.7965 39.7824 21.8197
0 31.823 40.3003 22.3195
0 31.7754 39.7864 43.7688
0 31.7081 41.2451 23.2508
0 31.5219 41.2594 42.1722
0 31.7679 40.7927 42.7745
0 31.7692 41.8008 23.7435
0 31.5253 42.1448 41.061
0 31.6594 42.9343 24.5186
0 31.5517 43.0238 39.9762
0 31.4855 44.0689 25.3762
0 31.1656 44.1809 38.0237
0 31.5748 43.9342 38.9194
0 31.7272 44.7756 25.7446
0 30.9158 45.0338 34.9857
0 31.103 45.0389 35.9214
0 31.3419 45.0055 36.9141
0 31.6465 44.838 37.8419
0 31.698 45.8004 26.7394
0 31.4054 46.108 27.5387
0 31.1014 45.994 34.0097
0 31.3614 45.9161 34.9065
0 31.5858 45.8347 35.8352
0 31.5696 46.932 28.6953
0 31.3484 47.1336 29.6608
0 31.1872 47.2196 30.7483
0 31.1706 47.1456 31.8689
0 31.3022 46.9915 32.9094
0 31.5251 46.8498 33.8717
0 31.7903 46.6962 34.7736
0 31.7433 47.7389 30.7914
0 31.7086 47.7627 31.7951
0 31.7773 47.7005 32.789
0 32.8962 18.698 25.7768
0 32.9974 18.4885 26.7288
0 33.0427 18.3131 27.7333
0 33.0392 18.2258 28.7874
0 32.9943 18.2419 29.8406
0 32.9419 18.326 30.8609
0 32.8875 18.4596 31.8453
0 32.8521 18.5737 32.8147
0 32.84 18.6366 33.7836
0 32.8631 18.6009 34.7572
0 32.9158 18.5191 35.7467
0 32.9825 18.4784 36.7862
0 32.9566 18.6152 37.8543
0 32.8206 19.8247 22.8218
0 33.0607 19.5599 23.6845
0 33.2574 19.3354 24.607
0 32.9669 19.687 39.0406
0 32.8903 20.7298 21.7191
0 33.2539 20.4216 22.4939
0 33.1069 20.5625 39.3739
0 32.7902 21.8513 20.8523
0 32.8623 21.7973 39.9047
0 32.9201 22.7426 20.5577
0 33.0036 22.7025 40.1621
0 33.0163 23.6694 20.3519
0 33.1584 23.6443 40.4347
0 33.0995 24.5173 20.107
0 32.8338 24.8325 40.8136
0 32.8513 25.709 19.5877
0 32.8093 25.8359 40.776
0 32.8868 26.5572 19.1903
0 33.1449 26.971 40.4675
0 32.7863 27.8042 18.8029
0 33.0587 27.9369 40.2916
0 32.7805 28.8212 18.7357
0 33.0144 28.8628 40.1714
0 32.8487 30.0883 18.9725
0 33.0528 29.754 40.1901
0 32.8656 30.9805 19.4032
0 32.8437 30.7374 40.8
0 32.8236 31.834 19.734
0 32.9459 31.4351 41.8636
0 32.8179 31.6974 42.7527
0 33.1024 32.8834 20.0079
0 32.876 32.1604 44.0651
0 32.792 32.679 44.8023
0 33.115 33.7774 20.0666
0 32.7867 33.282 45.3996
0 33.1378 34.7458 20.0253
0 32.7705 34.7277 45.9405
0 33.1485 35.8185 19.9574
0 32.7522 35.7873 46.0002
0 33.0988 36.9788 20.0741
0 32.7724 36.7883 45.7891
0 32.9415 37.9894 20.4547
0 32.6856 38.0315 45.1993
0 32.97 39.1492 21.419
0 32.7815 38.7602 44.7281
0 32.9201 40.1485 22.3954
0 32.7383 39.897 43.915
0 32.8461 41.1864 23.1908
0 32.711 40.9616 42.9494
0 32.7851 41.8401 23.6526
0 32.7066 41.9396 41.9214
0 32.6836 43.0248 24.2585
0 32.717 42.8915 40.8887
0 32.7329 43.8115 24.6401
0 32.7297 43.8487 39.8651
0 32.5454 45.0323 25.3677
0 32.735 44.8302 38.8575
0 32.7473 45.7546 25.7656
0 32.5245 46.1646 37.0785
0 32.7707 45.738 37.7806
0 32.7593 46.7394 26.7905
0 32.5253 47.1147 27.5409
0 32.6356 46.9238 35.9193
0 32.7058 47.8405 28.7448
0 32.5436 48.1186 29.6612
0 32.3892 48.318 30.6696
0 32.2647 48.4043 31.7853
0 32.321 48.2937 32.9431
0 32.5379 48.0265 33.9443
0 32.7796 47.698 34.7785
0 33.8534 18.7613 27.794
0 33.9032 18.6593 28.7932
0 33.9018 18.6288 29.8064
0 33.8698 18.6608 30.8121
0 33.8299 18.7288 31.8049
0 33.7984 18.8119 32.7911
0 33.7842 19.8661 24.8356
0 34.0019 19.6582 25.7246
0 34.1968 19.3986 26.6155
0 34.1136 18.8875 33.8383
0 34.1426 18.9468 34.8321
0 34.2063 19.0291 35.8827
0 34.2066 19.2238 36.9758
0 34.0421 19.579 37.9724
0 33.9862 20.7367 23.7605
0 34.2268 20.5587 24.6317
0 33.905 20.7715 38.9362
0 33.7975 21.8479 21.8471
0 34.0977 21.6976 22.7117
0 34.3726 21.5443 23.5765
0 34.0643 21.6673 39.2152
0 34.0742 22.7256 21.6674
0 34.4236 22.5515 22.5306
0 34.2043 22.5945 39.4792
0 33.8036 23.8333 20.8372
0 34.2765 23.6034 21.4742
0 33.9079 23.7884 39.9523
0 33.9834 24.6976 20.6054
0 33.9963 24.7983 40.1066
0 33.7856 25.8236 19.8568
0 33.9874 25.8516 40.1257
0 33.9371 26.575 19.4168
0 33.9213 26.8675 40.0406
0 33.7837 27.803 18.8257
0 33.8517 27.8456 39.9165
0 33.782 28.8208 18.6759
0 33.8039 28.8158 39.809
0 33.8743 30.1463 18.9915
0 33.8132 29.7856 39.8518
0 33.8243 30.9792 19.5068
0 33.8744 30.5717 40.1349
0 33.9898 32.0922 20.0045
0 33.8517 31.3372 40.9635
0 33.7975 31.6641 41.767
0 33.9507 32.8968 20.2567
0 33.8276 31.882 42.9581
0 33.7819 32.1861 43.9708
0 33.7675 32.6466 44.811
0 33.9405 33.7978 20.3644
0 33.7739 33.7616 45.7374
0 33.9676 34.7588 20.3437
0 33.7212 34.692 46.0535
0 34.0164 35.7997 20.2993
0 33.6858 35.7793 46.1568
0 33.9934 36.882 20.437
0 33.7091 36.84 45.9671
0 33.8426 37.8191 20.7578
0 33.5915 38.1228 45.382
0 33.8865 38.8944 21.6911
0 33.7295 38.8646 44.8812
0 33.8927 39.9287 22.6105
0 33.694 40.0034 44.0493
0 33.9205 41.0275 23.3241
0 33.6749 41.0922 43.1029
0 33.8002 41.7826 23.7291
0 33.6816 42.108 42.0789
0 33.8069 42.9878 24.1825
0 33.723 43.0654 41.0316
0 33.7712 43.841 24.5079
0 33.7637 44.0006 39.9813
0 33.7788 44.7102 24.8322
0 33.7963 44.9365 38.9416
0 33.7123 45.9498 25.5102
0 33.7915 45.8339 37.8612
0 33.7181 46.9969 26.5949
0 33.7057 47.2109 36.1874
0 33.7787 46.7059 36.7684
0 33.7739 47.7353 27.794
0 33.724 48.1309 28.6047
0 33.6387 48.5388 29.4753
0 33.5303 48.5085 34.1934
0 33.7002 47.9987 34.9745
0 33.7372 48.8871 30.753
0 33.6978 49.0265 31.783
0 33.7197 48.9235 32.836
0 34.973 19.6384 27.7358
0 35.0876 19.4786 28.7358
0 35.1397 19.387 29.7598
0 35.1446 19.3254 30.7741
0 35.1231 19.273 31.7826
0 35.084 19.2567 32.8041
0 35.0433 19.3106 33.8243
0 35.0102 19.4113 34.8319
0 34.9743 19.5451 35.8329
0 34.8835 19.7278 36.8149
0 34.9179 20.7433 25.7393
0 35.2065 20.4379 26.5462
0 35.0034 20.6619 37.9891
0 34.9802 21.7207 24.7087
0 34.7958 21.8437 38.7803
0 34.991 22.7278 23.7214
0 34.9437 22.7605 39.016
0 34.9883 23.7256 22.7265
0 35.0728 23.7087 39.2385
0 34.9514 24.7272 21.7334
0 35.3086 24.4721 22.4891
0 35.1686 24.7183 39.4463
0 34.8925 25.7302 20.7493
0 35.1796 25.7995 39.5726
0 34.843 26.7381 19.7627
0 35.1186 26.8759 39.5972
0 35.1023 27.4892 19.2491
0 35.0263 27.8947 39.5672
0 34.8019 28.8106 18.74
0 34.9281 28.8333 39.5674
0 35.0264 30.1145 19.0736
0 34.8224 29.6668 39.7093
0 34.8386 30.9579 19.5878
0 34.7448 30.5678 40.0729
0 34.9966 32.0584 20.1962
0 34.7105 31.3464 40.9575